 **********************************************************************
                          MRCC program system
 **********************************************************************
 
                              Written by
  Mihaly Kallay, Zoltan Rolik, Jozsef Csontos, Peter Nagy, Gyula Samu,
      David Mester, Jozsef Csoka, Bernat Szabo, Istvan Ladjanszki,
       Lorant Szegedy, Bence Ladoczki, Klara Petrov, Mate Farkas,
                    Pal D. Mezei, and Bence Hegely
 
        Department of Physical Chemistry and Materials Science
            Budapest University of Technology and Economics
                  Budapest P.O.Box 91, H-1521 Hungary
 
                              www.mrcc.hu
 
                       Release date: May 23, 2018

 ************************ 2020-02-14 10:23:16 *************************
 Executing minp...

 Reading input from MINP...
 
 Input file:
 
iface=dirac
calc=CCSDT-3
cctol=9
mem=7500MB
refdet=vector
 1 1 1 1 1 1 1 0 0 0 0 0 0 0 0 0 0 0 0 0 0 0 0 0 0 0 0 0 1 1 1 1 1 1 1 0 0 0 0 0 0 0 0 0 0 0 0 0 0 0 0 0 0 0 0 0
 
 
 Checking keyword combinations...
 
 Keywords:
 
 active=none
 agrid=ld0006-ld0590
 basis=
 basis_sm=none
 basopt=off
 bfbasis=none
 bpcompo=0.985
 bpcompv=0.98
 bpdfo=0.985
 bpocc=0.985
 bppdo=0.985
 bppdv=0.98
 bpedo=0.985
 bpedv=0.98
 calc=ccsdt-3
 ccmaxit=50
 ccprog=mrcc
 cctol=9
 charge=0
 cialg=disk
 ciguess=off
 cmpgrp=auto
 core=frozen
 corembed=off
 dboc=off
 dendec=cholesky
 dens=0
 dfalg=lineq
 dfbasis_cor=none
 dfbasis_scf=none
 dfintran=ovirt
 dft=off
 diag=david
 domrad=10.d0
 drpaalg=fit
 dual=off
 ecp=auto
 edisp=off
 embed=off
 epert=none
 eps=0.975
 excrad=0.d0
 excrad_fin=0.000000000D+00
 freq=off
 gauss=spher
 geom=zmat
 gopt=off
 ghost=none
 gtol=7
 grdens=off
 grtol=10
 hamilton=dc
 iface=dirac
 intalg=auto
 itol=13
 laptol=1.d-2
 lcorthr=loose
 lccrest=off
 lmp2dens=on
 lnoepso=0.d0
 lnoepsv=1e-6
 localcc=off
 localcorrsymm=off
 locintrf=disk
 maxact=off
 maxdim=100
 maxex=0
 mem=7500mb
 molden=on
 mulmet=0
 mult=
 nacto=0
 nactv=0
 naf_cor=off
 naf_scf=off
 nafalg=albe
 naftyp=
 nchol=auto
 ndeps=1e-3
 nstate=1
 nsing=0
 ntrip=0
 occ=
 optalg=
 optmaxit=50
 optetol=1e-6
 optgtol=1e-4
 optstol=1e-3
 orblocc=off
 orbloco=off
 orblocv=off
 orblocguess=cholesky
 osveps=1e-3
 ovirt=off
 ovltol=1e-7
 ovosnorb=80.0
 ptfreq=0.0
 popul=off
 pressure=100000
 qscf=off
 qmmm=off
 redcost_exc=off
 refdet=vector
 rest=0
 rgrid=log3
 rohftype=semicanonical
 scfalg=auto
 scfdamp=off
 scfdiis=on
 scfdiis_end=50
 scfdiis_start=1
 scfdiis_step=1
 scfdtol=10
 scfext=10
 scfiguess=sad
 scflshift=off
 scfmaxit=50
 scftype=
 scftol=9
 scspe=1.d0
 scsps=1.2d0
 scspt=0.33333333333333
 scspv=1.d0
 spairtol=1e-4
 symm=
 talg=occ
 temp=298.15
 test=off
 tprint=off
 uncontract=off
 unit=angs
 verbosity=2
 wpairtol=0.100000000E-05

 ************************ 2020-02-14 10:23:17 *************************
 Executing goldstone...

 Generation of CC equations in terms of H and T...
 Generation of antisymmetrized Goldstone diagrams...
 Number of diagrams in T^1 equations:    15
 Number of diagrams in T^2 equations:    37
 Number of diagrams in T^3 equations:    22
 Translation of diagrams to factorized equations...
 Optimizing intermediate calculation...
 Number of floating-point operations per iteration step:   4.7421E+09
 Probable CPU time per iteration step (hours):      0.05
 Required memory (Mbytes):     778.8
 Number of intermediates:                                  58
 Number of intermediates to be stored:                     29
 Length of intermediate file (Mbytes):      71.9

 ************************ 2020-02-14 10:23:17 *************************
 Executing xmrcc...

 **********************************************************************
 CC(3)-3 calculation 
 
 
 Allocation of 778.8 Mbytes of memory...
 Number of spinorbitals:                   112
 Number of alpha electrons:                       14
 Number of beta electrons:                         0
 Spin multiplicity:                     2
 z-component of spin:  7.0
 Spatial symmetry:                      1
 Convergence criterion:  1.0E-09
 Construction of occupation graphs...
 Number of                     0 -fold excitations:                      1
 Number of                     1 -fold excitations:                    294
 Number of                     2 -fold excitations:                  39249
 Total number of configurations:                  39544
 Calculation of coupling coefficients...
 Length of intermediate file (Mbytes):      22.4
 
 ======================================================================
 Spin case  1   Alpha:  3   Beta:  0
 Number of excitations:                2089360
 Number of                     3 -fold excitations:                2089360
 
 Memory requirements /Mbyte/: 
               Minimal        Optimal
 Real*8:          7.7274        75.1313
 Integer:         0.4355
 Total:           8.1629        75.5668
 

 ************************ 2020-02-14 10:23:17 *************************
 Executing mrcc...

 **********************************************************************
 CCSDT-3 calculation                                                    
 
 
 Allocation of   75.1 Mbytes of memory...
 Number of spinors:  56
 Number of electrons: 14
 Spin multiplicity: 2
 z-component of spin:  7.0
 Spatial symmetry: 1
 Convergence criterion:  1.0E-09
 Construction of occupation graphs...
 Number of 0-fold excitations: 1
 Number of 1-fold excitations: 294
 Number of 2-fold excitations: 39249
 Total number of determinants: 39544
 Calculation of coupling coefficients...
 Initial cluster amplitudes are generated.
 Length of intermediate file (Mbytes):      22.4
 Reading integral list from files MRCONEE and MDCINT...
 Sorting integrals...
 Energy of reference determinant [au]:    -112.649002954064
 Calculation of MP denominators...
 
 Starting CC iteration...
 ======================================================================
 Spin case  1   Alpha:  3   Beta:  0
 Number of excitations:        2089360
 Number of 3-fold excitations: 2089360
 Norm of residual vector:     1.10090448
 CPU time [min]:     0.054                   Wall time [min]:     0.054
 
 Iteration  1  CC energy:  -112.94152756  Energy decrease:   0.29252460
 ======================================================================
 Spin case  1   Alpha:  3   Beta:  0
 Number of excitations:        2089360
 Number of 3-fold excitations: 2089360
 Norm of residual vector:     0.17123717
 CPU time [min]:     0.107                   Wall time [min]:     0.107
 
 Iteration  2  CC energy:  -112.94734274  Energy decrease:   0.00581519
 ======================================================================
 Spin case  1   Alpha:  3   Beta:  0
 Number of excitations:        2089360
 Number of 3-fold excitations: 2089360
 Norm of residual vector:     0.05564264
 CPU time [min]:     0.160                   Wall time [min]:     0.160
 
 Iteration  3  CC energy:  -112.95925486  Energy decrease:   0.01191211
 ======================================================================
 Spin case  1   Alpha:  3   Beta:  0
 Number of excitations:        2089360
 Number of 3-fold excitations: 2089360
 Norm of residual vector:     0.01414774
 CPU time [min]:     0.213                   Wall time [min]:     0.213
 
 Iteration  4  CC energy:  -112.96041898  Energy decrease:   0.00116413
 ======================================================================
 Spin case  1   Alpha:  3   Beta:  0
 Number of excitations:        2089360
 Number of 3-fold excitations: 2089360
 Norm of residual vector:     0.00493275
 CPU time [min]:     0.267                   Wall time [min]:     0.267
 
 Iteration  5  CC energy:  -112.96026966  Energy decrease:   0.00014932
 ======================================================================
 Spin case  1   Alpha:  3   Beta:  0
 Number of excitations:        2089360
 Number of 3-fold excitations: 2089360
 Norm of residual vector:     0.00134561
 CPU time [min]:     0.320                   Wall time [min]:     0.320
 
 Iteration  6  CC energy:  -112.96033043  Energy decrease:   0.00006076
 ======================================================================
 Spin case  1   Alpha:  3   Beta:  0
 Number of excitations:        2089360
 Number of 3-fold excitations: 2089360
 Norm of residual vector:     0.00030149
 CPU time [min]:     0.373                   Wall time [min]:     0.373
 
 Iteration  7  CC energy:  -112.96032633  Energy decrease:   0.00000409
 ======================================================================
 Spin case  1   Alpha:  3   Beta:  0
 Number of excitations:        2089360
 Number of 3-fold excitations: 2089360
 Norm of residual vector:     0.00006331
 CPU time [min]:     0.426                   Wall time [min]:     0.426
 
 Iteration  8  CC energy:  -112.96032827  Energy decrease:   0.00000194
 ======================================================================
 Spin case  1   Alpha:  3   Beta:  0
 Number of excitations:        2089360
 Number of 3-fold excitations: 2089360
 Norm of residual vector:     0.00001290
 CPU time [min]:     0.480                   Wall time [min]:     0.480
 
 Iteration  9  CC energy:  -112.96032831  Energy decrease:   0.00000004
 ======================================================================
 Spin case  1   Alpha:  3   Beta:  0
 Number of excitations:        2089360
 Number of 3-fold excitations: 2089360
 Norm of residual vector:     0.00000296
 CPU time [min]:     0.533                   Wall time [min]:     0.533
 
 Iteration 10  CC energy:  -112.96032822  Energy decrease:   0.00000009
 ======================================================================
 Spin case  1   Alpha:  3   Beta:  0
 Number of excitations:        2089360
 Number of 3-fold excitations: 2089360
 Norm of residual vector:     0.00000078
 CPU time [min]:     0.586                   Wall time [min]:     0.586
 
 Iteration 11  CC energy:  -112.96032823  Energy decrease:   0.00000001
 ======================================================================
 Spin case  1   Alpha:  3   Beta:  0
 Number of excitations:        2089360
 Number of 3-fold excitations: 2089360
 Norm of residual vector:     0.00000023
 CPU time [min]:     0.640                   Wall time [min]:     0.640
 
 Iteration 12  CC energy:  -112.96032824  Energy decrease:   4.2397E-09
 ======================================================================
 Spin case  1   Alpha:  3   Beta:  0
 Number of excitations:        2089360
 Number of 3-fold excitations: 2089360
 Norm of residual vector:     0.00000008
 CPU time [min]:     0.693                   Wall time [min]:     0.693
 
 Iteration 13  CC energy:  -112.96032823  Energy decrease:   2.9561E-09
 ======================================================================
 Spin case  1   Alpha:  3   Beta:  0
 Number of excitations:        2089360
 Number of 3-fold excitations: 2089360
 Norm of residual vector:     0.00000003
 CPU time [min]:     0.747                   Wall time [min]:     0.747
 
 Iteration 14  CC energy:  -112.96032823  Energy decrease:   1.2234E-09
 ======================================================================
 Spin case  1   Alpha:  3   Beta:  0
 Number of excitations:        2089360
 Number of 3-fold excitations: 2089360
 Norm of residual vector:     0.00000001
 CPU time [min]:     0.801                   Wall time [min]:     0.801
 
 Iteration 15  CC energy:  -112.96032823  Energy decrease:   1.3937E-10
 ======================================================================
 Spin case  1   Alpha:  3   Beta:  0
 Number of excitations:        2089360
 Number of 3-fold excitations: 2089360
 Norm of residual vector:     3.5344E-09
 CPU time [min]:     0.855                   Wall time [min]:     0.855
 
 Iteration 16  CC energy:  -112.96032823  Energy decrease:   7.9424E-11
 ======================================================================
 Spin case  1   Alpha:  3   Beta:  0
 Number of excitations:        2089360
 Number of 3-fold excitations: 2089360
 Norm of residual vector:     1.2086E-09
 CPU time [min]:     0.908                   Wall time [min]:     0.908
 
 Iteration 17  CC energy:  -112.96032823  Energy decrease:   3.9591E-11
 ======================================================================
 Spin case  1   Alpha:  3   Beta:  0
 Number of excitations:        2089360
 Number of 3-fold excitations: 2089360
 Norm of residual vector:     4.2303E-10
 CPU time [min]:     0.961                   Wall time [min]:     0.962
 
 Iteration 18  CC energy:  -112.96032823  Energy decrease:   3.4674E-12
 ======================================================================
 
 Iteration has converged in 18 steps.
 
 Final results:
 Total CCSDT-3 energy [au]:         -112.960328233456
 
 ************************ 2020-02-14 10:24:15 *************************
                      Normal termination of mrcc.
 **********************************************************************
