 **********************************************************************
                          MRCC program system
 **********************************************************************
 
                              Written by
  Mihaly Kallay, Zoltan Rolik, Jozsef Csontos, Peter Nagy, Gyula Samu,
      David Mester, Jozsef Csoka, Bernat Szabo, Istvan Ladjanszki,
       Lorant Szegedy, Bence Ladoczki, Klara Petrov, Mate Farkas,
                    Pal D. Mezei, and Bence Hegely
 
        Department of Physical Chemistry and Materials Science
            Budapest University of Technology and Economics
                  Budapest P.O.Box 91, H-1521 Hungary
 
                              www.mrcc.hu
 
                       Release date: May 23, 2018

 ************************ 2020-02-14 10:09:12 *************************
 Executing minp...

 Reading input from MINP...
 
 Input file:
 
iface=dirac
calc=CCSDT-1b
cctol=9
mem=7500MB
refdet=vector
 1 1 1 1 1 1 1 0 0 0 0 0 0 0 0 0 0 0 0 0 0 0 0 0 0 0 0 0 1 1 1 1 1 1 1 0 0 0 0 0 0 0 0 0 0 0 0 0 0 0 0 0 0 0 0 0
 
 
 Checking keyword combinations...
 
 Keywords:
 
 active=none
 agrid=ld0006-ld0590
 basis=
 basis_sm=none
 basopt=off
 bfbasis=none
 bpcompo=0.985
 bpcompv=0.98
 bpdfo=0.985
 bpocc=0.985
 bppdo=0.985
 bppdv=0.98
 bpedo=0.985
 bpedv=0.98
 calc=ccsdt-1b
 ccmaxit=50
 ccprog=mrcc
 cctol=9
 charge=0
 cialg=disk
 ciguess=off
 cmpgrp=auto
 core=frozen
 corembed=off
 dboc=off
 dendec=cholesky
 dens=0
 dfalg=lineq
 dfbasis_cor=none
 dfbasis_scf=none
 dfintran=ovirt
 dft=off
 diag=david
 domrad=10.d0
 drpaalg=fit
 dual=off
 ecp=auto
 edisp=off
 embed=off
 epert=none
 eps=0.975
 excrad=0.d0
 excrad_fin=0.000000000D+00
 freq=off
 gauss=spher
 geom=zmat
 gopt=off
 ghost=none
 gtol=7
 grdens=off
 grtol=10
 hamilton=dc
 iface=dirac
 intalg=auto
 itol=13
 laptol=1.d-2
 lcorthr=loose
 lccrest=off
 lmp2dens=on
 lnoepso=0.d0
 lnoepsv=1e-6
 localcc=off
 localcorrsymm=off
 locintrf=disk
 maxact=off
 maxdim=100
 maxex=0
 mem=7500mb
 molden=on
 mulmet=0
 mult=
 nacto=0
 nactv=0
 naf_cor=off
 naf_scf=off
 nafalg=albe
 naftyp=
 nchol=auto
 ndeps=1e-3
 nstate=1
 nsing=0
 ntrip=0
 occ=
 optalg=
 optmaxit=50
 optetol=1e-6
 optgtol=1e-4
 optstol=1e-3
 orblocc=off
 orbloco=off
 orblocv=off
 orblocguess=cholesky
 osveps=1e-3
 ovirt=off
 ovltol=1e-7
 ovosnorb=80.0
 ptfreq=0.0
 popul=off
 pressure=100000
 qscf=off
 qmmm=off
 redcost_exc=off
 refdet=vector
 rest=0
 rgrid=log3
 rohftype=semicanonical
 scfalg=auto
 scfdamp=off
 scfdiis=on
 scfdiis_end=50
 scfdiis_start=1
 scfdiis_step=1
 scfdtol=10
 scfext=10
 scfiguess=sad
 scflshift=off
 scfmaxit=50
 scftype=
 scftol=9
 scspe=1.d0
 scsps=1.2d0
 scspt=0.33333333333333
 scspv=1.d0
 spairtol=1e-4
 symm=
 talg=occ
 temp=298.15
 test=off
 tprint=off
 uncontract=off
 unit=angs
 verbosity=2
 wpairtol=0.100000000E-05

 ************************ 2020-02-14 10:09:13 *************************
 Executing goldstone...

 Generation of CC equations in terms of H and T...
 Generation of antisymmetrized Goldstone diagrams...
 Number of diagrams in T^1 equations:    15
 Number of diagrams in T^2 equations:    37
 Number of diagrams in T^3 equations:     2
 Translation of diagrams to factorized equations...
 Optimizing intermediate calculation...
 Number of floating-point operations per iteration step:   4.1173E+09
 Probable CPU time per iteration step (hours):      0.04
 Required memory (Mbytes):     778.8
 Number of intermediates:                                  50
 Number of intermediates to be stored:                     21
 Length of intermediate file (Mbytes):      44.6

 ************************ 2020-02-14 10:09:13 *************************
 Executing xmrcc...

 **********************************************************************
 CC(3)-1b calculation 
 
 
 Allocation of 778.8 Mbytes of memory...
 Number of spinorbitals:                   112
 Number of alpha electrons:                       14
 Number of beta electrons:                         0
 Spin multiplicity:                     2
 z-component of spin:  7.0
 Spatial symmetry:                      1
 Convergence criterion:  1.0E-09
 Construction of occupation graphs...
 Number of                     0 -fold excitations:                      1
 Number of                     1 -fold excitations:                    294
 Number of                     2 -fold excitations:                  39249
 Total number of configurations:                  39544
 Calculation of coupling coefficients...
 Length of intermediate file (Mbytes):      12.3
 
 ======================================================================
 Spin case  1   Alpha:  3   Beta:  0
 Number of excitations:                2089360
 Number of                     3 -fold excitations:                2089360
 
 Memory requirements /Mbyte/: 
               Minimal        Optimal
 Real*8:          7.7274        75.1313
 Integer:         0.4326
 Total:           8.1601        75.5639
 

 ************************ 2020-02-14 10:09:13 *************************
 Executing mrcc...

 **********************************************************************
 CCSDT-1b calculation                                                   
 
 
 Allocation of   75.1 Mbytes of memory...
 Number of spinors:  56
 Number of electrons: 14
 Spin multiplicity: 2
 z-component of spin:  7.0
 Spatial symmetry: 1
 Convergence criterion:  1.0E-09
 Construction of occupation graphs...
 Number of 0-fold excitations: 1
 Number of 1-fold excitations: 294
 Number of 2-fold excitations: 39249
 Total number of determinants: 39544
 Calculation of coupling coefficients...
 Initial cluster amplitudes are generated.
 Length of intermediate file (Mbytes):      12.3
 Reading integral list from files MRCONEE and MDCINT...
 Sorting integrals...
 Energy of reference determinant [au]:    -112.649002954064
 Calculation of MP denominators...
 
 Starting CC iteration...
 ======================================================================
 Spin case  1   Alpha:  3   Beta:  0
 Number of excitations:        2089360
 Number of 3-fold excitations: 2089360
 Norm of residual vector:     1.10090448
 CPU time [min]:     0.051                   Wall time [min]:     0.052
 
 Iteration  1  CC energy:  -112.94152756  Energy decrease:   0.29252460
 ======================================================================
 Spin case  1   Alpha:  3   Beta:  0
 Number of excitations:        2089360
 Number of 3-fold excitations: 2089360
 Norm of residual vector:     0.17027605
 CPU time [min]:     0.099                   Wall time [min]:     0.100
 
 Iteration  2  CC energy:  -112.94879331  Energy decrease:   0.00726576
 ======================================================================
 Spin case  1   Alpha:  3   Beta:  0
 Number of excitations:        2089360
 Number of 3-fold excitations: 2089360
 Norm of residual vector:     0.05436152
 CPU time [min]:     0.148                   Wall time [min]:     0.149
 
 Iteration  3  CC energy:  -112.96067349  Energy decrease:   0.01188017
 ======================================================================
 Spin case  1   Alpha:  3   Beta:  0
 Number of excitations:        2089360
 Number of 3-fold excitations: 2089360
 Norm of residual vector:     0.01356700
 CPU time [min]:     0.196                   Wall time [min]:     0.197
 
 Iteration  4  CC energy:  -112.96171060  Energy decrease:   0.00103712
 ======================================================================
 Spin case  1   Alpha:  3   Beta:  0
 Number of excitations:        2089360
 Number of 3-fold excitations: 2089360
 Norm of residual vector:     0.00459577
 CPU time [min]:     0.245                   Wall time [min]:     0.246
 
 Iteration  5  CC energy:  -112.96159822  Energy decrease:   0.00011239
 ======================================================================
 Spin case  1   Alpha:  3   Beta:  0
 Number of excitations:        2089360
 Number of 3-fold excitations: 2089360
 Norm of residual vector:     0.00131554
 CPU time [min]:     0.294                   Wall time [min]:     0.294
 
 Iteration  6  CC energy:  -112.96165722  Energy decrease:   0.00005900
 ======================================================================
 Spin case  1   Alpha:  3   Beta:  0
 Number of excitations:        2089360
 Number of 3-fold excitations: 2089360
 Norm of residual vector:     0.00030363
 CPU time [min]:     0.342                   Wall time [min]:     0.343
 
 Iteration  7  CC energy:  -112.96165557  Energy decrease:   0.00000165
 ======================================================================
 Spin case  1   Alpha:  3   Beta:  0
 Number of excitations:        2089360
 Number of 3-fold excitations: 2089360
 Norm of residual vector:     0.00006503
 CPU time [min]:     0.390                   Wall time [min]:     0.391
 
 Iteration  8  CC energy:  -112.96165734  Energy decrease:   0.00000177
 ======================================================================
 Spin case  1   Alpha:  3   Beta:  0
 Number of excitations:        2089360
 Number of 3-fold excitations: 2089360
 Norm of residual vector:     0.00001366
 CPU time [min]:     0.439                   Wall time [min]:     0.440
 
 Iteration  9  CC energy:  -112.96165747  Energy decrease:   0.00000013
 ======================================================================
 Spin case  1   Alpha:  3   Beta:  0
 Number of excitations:        2089360
 Number of 3-fold excitations: 2089360
 Norm of residual vector:     0.00000320
 CPU time [min]:     0.488                   Wall time [min]:     0.489
 
 Iteration 10  CC energy:  -112.96165738  Energy decrease:   0.00000009
 ======================================================================
 Spin case  1   Alpha:  3   Beta:  0
 Number of excitations:        2089360
 Number of 3-fold excitations: 2089360
 Norm of residual vector:     0.00000081
 CPU time [min]:     0.536                   Wall time [min]:     0.537
 
 Iteration 11  CC energy:  -112.96165739  Energy decrease:   0.00000001
 ======================================================================
 Spin case  1   Alpha:  3   Beta:  0
 Number of excitations:        2089360
 Number of 3-fold excitations: 2089360
 Norm of residual vector:     0.00000022
 CPU time [min]:     0.585                   Wall time [min]:     0.586
 
 Iteration 12  CC energy:  -112.96165739  Energy decrease:   4.1921E-09
 ======================================================================
 Spin case  1   Alpha:  3   Beta:  0
 Number of excitations:        2089360
 Number of 3-fold excitations: 2089360
 Norm of residual vector:     0.00000007
 CPU time [min]:     0.634                   Wall time [min]:     0.635
 
 Iteration 13  CC energy:  -112.96165739  Energy decrease:   2.5573E-09
 ======================================================================
 Spin case  1   Alpha:  3   Beta:  0
 Number of excitations:        2089360
 Number of 3-fold excitations: 2089360
 Norm of residual vector:     0.00000003
 CPU time [min]:     0.683                   Wall time [min]:     0.684
 
 Iteration 14  CC energy:  -112.96165739  Energy decrease:   9.9477E-10
 ======================================================================
 Spin case  1   Alpha:  3   Beta:  0
 Number of excitations:        2089360
 Number of 3-fold excitations: 2089360
 Norm of residual vector:     0.00000001
 CPU time [min]:     0.731                   Wall time [min]:     0.732
 
 Iteration 15  CC energy:  -112.96165739  Energy decrease:   1.2660E-10
 ======================================================================
 Spin case  1   Alpha:  3   Beta:  0
 Number of excitations:        2089360
 Number of 3-fold excitations: 2089360
 Norm of residual vector:     3.0610E-09
 CPU time [min]:     0.780                   Wall time [min]:     0.781
 
 Iteration 16  CC energy:  -112.96165739  Energy decrease:   6.6962E-11
 ======================================================================
 Spin case  1   Alpha:  3   Beta:  0
 Number of excitations:        2089360
 Number of 3-fold excitations: 2089360
 Norm of residual vector:     9.5170E-10
 CPU time [min]:     0.829                   Wall time [min]:     0.830
 
 Iteration 17  CC energy:  -112.96165739  Energy decrease:   2.3647E-11
 ======================================================================
 
 Iteration has converged in 17 steps.
 
 Final results:
 Total CCSDT-1b energy [au]:        -112.961657392011
 
 ************************ 2020-02-14 10:10:03 *************************
                      Normal termination of mrcc.
 **********************************************************************
